What is 5 + 5?,10,STEM
What is the capital of Alaska?,Juneau,Geography
The Viking spacecraft sent back to Earth photographs and reports about the surface of which planet?,Mars,STEM
How many Stanley Cups have the Chicago Blackhawks hockey team won?,6,Sports
Who invented Ruby?,Yukihiro Matsumoto,programming_questions
What year did the United States land the first man on the moon?,1969,History
How many colors are there in a standard rainbow?,7,Science
What is the capital city of Canada?,Ottawa,Geography
How many sides does a hexagon have?,6,Math
Who painted the Mona Lisa?,Leonardo da Vinci,Art
What is the chemical symbol for gold?,Au,Science
What is the tallest mountain in the world?,Mount Everest,Geography
How many players are there on a standard soccer team?,11,Sports
What is the main ingredient in guacamole?,Avocado,Food
Who wrote the Harry Potter book series?,J.K. Rowling,Literature
What is the largest planet in our solar system?,Jupiter,Science
How many legs does a spider have?,8,Science
What is the capital of France?,Paris,Geography
How many continents are there on Earth?,7,Geography
What is the square root of 64?,8,Math
How many letters are in the English alphabet?,26,Language
What is the chemical symbol for water?,H2O,Science
What is the longest river in the world?,Nile,Geography
How many stripes are on the American flag?,13,History
Who directed the movie Jurassic Park?,Steven Spielberg,Movies
What year did the Titanic sink?,1912,History
How many planets are in our solar system?,8,Science
What is the capital of Japan?,Tokyo,Geography
What is the main ingredient in traditional sushi?,Rice,Food
What is the national sport of Canada?,Lacrosse,Sports
What does the "E" stand for in "E=mc²"?,Energy,Science
How many minutes are in an hour?,60,Math
What is the tallest animal in the world?,Giraffe,Science
What sport is known as "the beautiful game"?,Soccer,Sports
Who wrote Romeo and Juliet?,William Shakespeare,Literature
How many chambers does the human heart have?,4,Science
What is the name of Batman's butler?,Alfred,Comics
Who was the first U.S. president?,George Washington,History
What is the capital of Italy?,Rome,Geography
How many holes are there in a standard golf course?,18,Sports
What is the national flower of Japan?,Cherry Blossom,Geography
How many bones are in the human body?,206,Science
What does "www" stand for in a website URL?,World Wide Web,Technology
What is the currency of the United Kingdom?,Pound Sterling,Geography
How many points is a touchdown worth in American football?,6,Sports
What year did World War II end?,1945,History
How many degrees are in a circle?,360,Math
What is the freezing point of water in Fahrenheit?,32,Science
What is the largest ocean on Earth?,Pacific,Geography
Who invented the lightbulb?,Thomas Edison,History
What is the capital of Australia?,Canberra,Geography
How many Olympic rings are there?,5,Sports
What is the fastest land animal?,Cheetah,Science
How many sides does a pentagon have?,5,Math
Who was the first man to walk on the moon?,Neil Armstrong,History
What language is spoken in Brazil?,Portuguese,Language
How many hearts does an octopus have?,3,Science
What is the capital of Spain?,Madrid,Geography
Who wrote The Great Gatsby?,F. Scott Fitzgerald,Literature
What color is chlorophyll?,Green,Science
What is the smallest planet in our solar system?,Mercury,Science
How many keys are on a standard piano?,88,Music
What is the capital of Germany?,Berlin,Geography
What is the most common gas in Earth's atmosphere?,Nitrogen,Science
Who painted Starry Night?,Vincent van Gogh,Art
What is the hardest natural substance on Earth?,Diamond,Science
What does the "USB" in USB drive stand for?,Universal Serial Bus,Technology
Who won the first Super Bowl?,Green Bay Packers,Sports
What is the name of the fairy in Peter Pan?,Tinkerbell,Literature
How many Great Lakes are there?,5,Geography
What is the largest land animal?,Elephant,Science
What is the capital of Russia?,Moscow,Geography
How many wings does a butterfly have?,4,Science
What is the main ingredient in hummus?,Chickpeas,Food
How many stars are on the U.S. flag?,50,History
What does NASA stand for?,National Aeronautics and Space Administration,Science
How many elements are on the periodic table?,118,Science
What is the most spoken language in the world?,English,Language
How many teeth does an adult human have?,32,Science
What is the capital of South Korea?,Seoul,Geography
What is the longest-running animated TV show?,The Simpsons,TV
How many sides does a stop sign have?,8,General Knowledge
Who wrote To Kill a Mockingbird?,Harper Lee,Literature
What does FBI stand for?,Federal Bureau of Investigation,Government
How many eyes does a bee have?,5,Science
What planet is known as the Red Planet?,Mars,Science
What is the name of Mickey Mouse’s pet dog?,Pluto,Cartoons
What year did the Berlin Wall fall?,1989,History
How many strings does a standard guitar have?,6,Music
What is the capital of Mexico?,Mexico City,Geography
Who played Jack in Titanic?,Leonardo DiCaprio,Movies
How many flavors are in a standard box of Neapolitan ice cream?,3,Food
What is the square root of 144?,12,Math
How many grams are in a kilogram?,1000,Math
What does the Richter scale measure?,Earthquakes,Science
Who is the Greek god of war?,Ares,Mythology
How many U.S. states are there?,50,Geography
Who wrote Pride and Prejudice?,Jane Austen,Literature
What gas do plants absorb from the atmosphere?,Carbon Dioxide,Science
What shape is a stop sign?,Octagon,General Knowledge
How many wheels does a tricycle have?,3,General Knowledge
What is the capital of India?,New Delhi,Geography
Who painted The Last Supper?,Leonardo da Vinci,Art
What are the primary colors?,Red, Blue, Yellow,Art
How many eyes do most spiders have?,8,Science
How many chambers are in a bee’s stomach?,2,Science
What is the national dish of Italy?,Pasta,Food
What does the "C" stand for in CPU?,Central,Technology
What is the name of the world's largest desert?,Antarctica,Geography
How many points is a field goal worth in American football?,3,Sports
What is the most widely consumed drink in the world after water?,Tea,Food
What type of animal is a Komodo dragon?,Lizard,Science
What is the capital of Brazil?,Brasília,Geography
How many squares are on a chessboard?,64,Games
What type of tree produces acorns?,Oak,Science
What is the smallest country in the world by land area?,Vatican City,Geography
How many time zones does China have?,1,Geography
What is the most abundant metal in Earth's crust?,Aluminum,Science
What is the capital of Switzerland?,Bern,Geography
How many pockets are on a standard billiards table?,6,Sports
What is the chemical symbol for iron?,Fe,Science
What is the name of the Greek goddess of wisdom?,Athena,Mythology
What year did the United States declare independence?,1776,History
How many points are scored for a bullseye in darts?,50,Sports
What is the official language of Egypt?,Arabic,Language
What element does the chemical symbol "Pb" represent?,Lead,Science
Who was the first female U.S. Supreme Court Justice?,Sandra Day O’Connor,History
What is the largest organ in the human body?,Skin,Science
What is the name of the largest bone in the human body?,Femur,Science
How many symphonies did Beethoven compose?,9,Music
Who played Forrest Gump in the 1994 movie?,Tom Hanks,Movies
What is the currency of Japan?,Yen,Geography
Who is the Norse god of thunder?,Thor,Mythology
How many sides does a heptagon have?,7,Math
What is the only U.S. state with a one-syllable name?,Maine,Geography
Who discovered penicillin?,Alexander Fleming,Science
What is the longest-running Broadway show?,The Phantom of the Opera,Theater
What is the boiling point of water in Celsius?,100,Science
What is the capital of Argentina?,Buenos Aires,Geography
What is the national animal of Scotland?,Unicorn,Geography
How many players are on a standard volleyball team?,6,Sports
What is the term for a baby goat?,Kid,Science
What is the most commonly used letter in the English alphabet?,E,Language
How many tentacles does a squid have?,10,Science
What year did the first iPhone release?,2007,Technology
What is the name of the cowboy in Toy Story?,Woody,Movies
What is the most populous city in the world?,Tokyo,Geography
Who invented the telephone?,Alexander Graham Bell,History
What is the capital of South Africa?,Pretoria,Geography
What is the national bird of the United States?,Bald Eagle,Geography
How many players are on a baseball field at one time per team?,9,Sports
What is the official language of Brazil?,Portuguese,Language
What U.S. state is known as the "Sunshine State"?,Florida,Geography
What does a barometer measure?,Air pressure,Science
Who was the first emperor of Rome?,Augustus,History
What year was Google founded?,1998,Technology
What is the capital of Turkey?,Ankara,Geography
What is the name of Sherlock Holmes’ assistant?,Dr. Watson,Literature
How many karats is pure gold?,24,Science
What is the term for a word that is the same forward and backward?,Palindrome,Language
What is the name of the main protagonist in The Legend of Zelda video game series?,Link,Games
How many films are in the original Star Wars trilogy?,3,Movies
What is the name of the process by which plants make their own food?,Photosynthesis,Science
What is the name of the tallest building in the world?,Burj Khalifa,Geography
Who was the lead singer of Queen?,Freddie Mercury,Music
What is the largest desert in the world?,Sahara,Geography
What is the longest bone in the human body?,Femur,Science
Which animal is known as the "king of the jungle"?,Lion,Science
What is the capital of Canada?,Ottawa,Geography
Who painted The Persistence of Memory?,Salvador Dalí,Art
What year did the first manned mission land on the Moon?,1969,History
What is the world's fastest bird?,Peregrine Falcon,Science
Who wrote Moby-Dick?,Herman Melville,Literature
What is the hardest natural substance on Earth?,Diamond,Science
How many bones does an adult human body have?,206,Science
What is the currency of Italy?,Euro,Geography
What is the capital city of Egypt?,Cairo,Geography
Who is the author of the Game of Thrones books?,George R.R. Martin,Literature
Which planet is closest to the Sun?,Mercury,Science
How many players are on a rugby team?,15,Sports
What country is home to the Great Barrier Reef?,Australia,Geography
What is the main ingredient in traditional Japanese miso soup?,Miso paste,Food
What is the smallest continent by land area?,Australia,Geography
How many continents are there on Earth?,7,Geography
What is the capital of Brazil?,Brasília,Geography
How many squares are on a standard chessboard?,64,Games
Who was the first woman to win a Nobel Prize?,Marie Curie,Science
What is the longest river in the United States?,Missouri River,Geography
What is the chemical symbol for potassium?,K,Science
Who directed Avatar?,James Cameron,Movies
What is the capital of the United Kingdom?,London,Geography
How many stripes are there on the flag of the United States?,13,History
Who invented the first practical telephone?,Alexander Graham Bell,History
What is the tallest waterfall in the world?,Angel Falls,Geography
Who played Jack Sparrow in Pirates of the Caribbean?,Johnny Depp,Movies
What is the term for a word that is spelled the same forwards and backwards?,Palindrome,Language
What is the name of the first artificial Earth satellite?,Sputnik 1,Science
How many players are there on a basketball team on the court at one time?,5,Sports
What does "HTTP" stand for?,Hypertext Transfer Protocol,Technology
What is the currency of Mexico?,Peso,Geography
What is the main ingredient in traditional Italian pizza dough?,Flour,Food
What is the deepest ocean in the world?,Pacific Ocean,Geography
What element has the atomic number 1?,Hydrogen,Science
Who was the first man to climb Mount Everest?,Edmund Hillary,Geography
What year did the Titanic sink?,1912,History
What type of animal is a Komodo dragon?,Lizard,Science
What is the capital of Sweden?,Stockholm,Geography
What is the largest island in the world?,Greenland,Geography
Who was the first president of the United States?,George Washington,History
What is the term for an adult female deer?,Doe,Science
What is the capital of China?,Beijing,Geography
What is the currency of Canada?,Canadian Dollar,Geography
Who was the first person to fly solo across the Atlantic Ocean?,Charles Lindbergh,History
How many Olympic rings are there?,5,Sports
What is the largest organ in the human body?,Skin,Science
What is the capital of Portugal?,Lisbon,Geography
What is the national currency of India?,Rupee,Geography
What does DNA stand for?,Deoxyribonucleic Acid,Science
How many sides does a hexagon have?,6,Math
Who painted the Mona Lisa?,Leonardo da Vinci,Art
What is the name of Harry Potter’s pet owl?,Hedwig,Books
How many colors are in a rainbow?,7,Science
What is the national sport of Japan?,Sumo wrestling,Sports
What is the highest mountain in North America?,Denali,Geography
Who discovered gravity?,Isaac Newton,Science
How many stars are in the Big Dipper?,7,Science
What is the capital of Norway?,Oslo,Geography
What is the largest freshwater lake in the world?,Lake Superior,Geography
How many hearts does a worm have?,5,Science
What does the “O” in “OPEC” stand for?,Organization,General Knowledge
What is the name of the fairy tale character who leaves a glass slipper?,Cinderella,Literature
What is the chemical symbol for sodium?,Na,Science
What is the speed of light in a vacuum?,299,792,458 meters per second,Science
Who founded Microsoft?,Bill Gates and Paul Allen,Technology
What is the only U.S. state that starts with the letter “P”?,Pennsylvania,Geography
What is the term for molten rock before it erupts from a volcano?,Magma,Science
Who was the first actor to play James Bond in a movie?,Sean Connery,Movies
How many legs does a lobster have?,10,Science
What is the term for a baby horse?,Foal,Science
How many moons does Earth have?,1,Science
What is the capital of Thailand?,Bangkok,Geography
What is the chemical symbol for gold?,Au,Science
What color are emeralds?,Green,Science
How many players are on a standard soccer team on the field at one time?,11,Sports
What is the national animal of China?,Giant Panda,Geography
What is the capital of New Zealand?,Wellington,Geography
What is the world’s largest ocean?,Pacific Ocean,Geography
What is the capital of South Carolina?,Columbia,Geography
Who was the first person to win two Nobel Prizes?,Marie Curie,Science
How many faces does a cube have?,6,Math
Who directed Inception?,Christopher Nolan,Movies
What element makes up most of the air we breathe?,Nitrogen,Science
What is the official language of Argentina?,Spanish,Geography
Who played Hermione Granger in the Harry Potter movies?,Emma Watson,Movies
How many paws does a cat have?,4,Science
What is the capital of Texas?,Austin,Geography
What is the world’s largest rainforest?,Amazon Rainforest,Geography
How many seasons are in a year?,4,Science
What do bees collect from flowers?,Nectar,Science
What is the square root of 81?,9,Math
What does “USB” stand for?,Universal Serial Bus,Technology
What is the capital of Indonesia?,Jakarta,Geography
Who wrote The Catcher in the Rye?,J.D. Salinger,Literature
How many players are on a hockey team on the ice at one time (per team)?,6,Sports
What does GPS stand for?,Global Positioning System,Technology
What is the capital of France?,Paris,Geography
What is the national flower of Japan?,Cherry Blossom,Geography
Who wrote Romeo and Juliet?,William Shakespeare,Literature
What is the smallest planet in the solar system?,Mercury,Science
How many strings does a standard violin have?,4,Music
Who painted Starry Night?,Vincent van Gogh,Art
How many wings does a butterfly have?,4,Science
What is the capital of Germany?,Berlin,Geography
What is the chemical symbol for oxygen?,O,Science
What is the hardest known mineral?,Diamond,Science
What is the tallest mountain in Africa?,Mount Kilimanjaro,Geography
How many chambers are in the human heart?,4,Science
What year did World War II end?,1945,History
What is the national currency of the United Kingdom?,Pound Sterling,Geography
What does CPU stand for?,Central Processing Unit,Technology
Who directed Jurassic Park?,Steven Spielberg,Movies
What is the capital of Russia?,Moscow,Geography
What is the study of fungi called?,Mycology,Science
How many zeros are in a billion?,9,Math
What is the chemical symbol for silver?,Ag,Science
How many sides does an octagon have?,8,Math
Who was the first U.S. president?,George Washington,History
What is the world's longest river?,Nile River,Geography
What is the capital of Italy?,Rome,Geography
What is the national sport of Canada?,Lacrosse,Sports
What year did the Berlin Wall fall?,1989,History
What is the largest planet in the solar system?,Jupiter,Science
How many legs does a spider have?,8,Science
Who is the Greek god of the sea?,Poseidon,Mythology
What is the capital of India?,New Delhi,Geography
What is the name of the fairy in Peter Pan?,Tinker Bell,Movies
How many continents are there?,7,Geography
What is the largest species of bear?,Polar Bear,Science
How many sides does a pentagon have?,5,Math
What does "ATM" stand for?,Automated Teller Machine,Technology
What is the chemical symbol for carbon?,C,Science
Who was the first man to step on the Moon?,Neil Armstrong,History
What is the capital of Spain?,Madrid,Geography
What is the rarest blood type?,AB Negative,Science
What is the main ingredient in guacamole?,Avocado,Food
How many feet are in a mile?,5280,Math
What is the capital of Australia?,Canberra,Geography
What animal is known for changing its color?,Chameleon,Science
What is the world's deepest ocean trench?,Mariana Trench,Geography
Who was the first female aviator to fly solo across the Atlantic?,Amelia Earhart,History
What is the chemical symbol for helium?,He,Science
What does "NASA" stand for?,National Aeronautics and Space Administration,Technology
What is the capital of Greece?,Athens,Geography
What is the term for an animal that eats only plants?,Herbivore,Science
Who wrote The Great Gatsby?,F. Scott Fitzgerald,Literature
What is the largest mammal in the world?,Blue Whale,Science
How many holes are there in a standard round of golf?,18,Sports
What is the capital of South Korea?,Seoul,Geography
What element does the chemical symbol "Sn" represent?,Tin,Science
What is the main ingredient in hummus?,Chickpeas,Food
What is the name of Batman’s butler?,Alfred Pennyworth,Comics
What year was the Declaration of Independence signed?,1776,History
How many points is a touchdown worth in American football?,6,Sports
What is the national bird of Canada?,Common Loon,Geography
How many wings does a mosquito have?,2,Science
Who played Tony Stark in the Marvel movies?,Robert Downey Jr.,Movies
What does "FIFO" stand for in inventory management?,First In, First Out,Business
What is the chemical symbol for neon?,Ne,Science
What is the name of Sherlock Holmes' brother?,Mycroft Holmes,Literature
Who discovered electricity with a kite experiment?,Benjamin Franklin,History
How many teaspoons are in a tablespoon?,3,Food
What is the largest species of shark?,Whale Shark,Science
How many U.S. states border Canada?,13,Geography
What is the chemical formula for water?,H2O,Science
How many grams are in a kilogram?,1000,Math
What is the main gas in Earth's atmosphere?,Nitrogen,Science
What is the most spoken language in the world?,English,Language
What does "USB" stand for?,Universal Serial Bus,Technology
What is the world's largest land carnivore?,Polar Bear,Science
What is the primary ingredient in beer?,Barley,Food
What is the name of the pirate in Treasure Island?,Long John Silver,Literature
What is the capital of Mexico?,Mexico City,Geography
How many players are on a standard American football team on the field at one time?,11,Sports
What year did the Titanic sink?,1912,History
Who was the first Disney princess?,Snow White,Movies
What is the name of the cowboy in Toy Story?,Woody,Movies
What color is the M in the McDonald’s logo?,Yellow,Business
What is the smallest unit of matter?,Atom,Science
What do pandas primarily eat?,Bamboo,Science
How many players are on a water polo team in the pool at one time?,7,Sports
What is the largest country by land area?,Russia,Geography
What is the most widely consumed alcoholic beverage in the world?,Beer,Food
What does "JPEG" stand for?,Joint Photographic Experts Group,Technology
What is the fastest land animal?,Cheetah,Science
What is the boiling point of water in Fahrenheit?,212,Science
How many squares are on a checkerboard?,64,Games
What is the capital of Switzerland?,Bern,Geography
What is the name of the dragon in The Hobbit?,Smaug,Literature
What is the term for a word that has the same meaning as another word?,Synonym,Language
What is the primary ingredient in peanut butter?,Peanuts,Food
What is the name of the wizard in The Lord of the Rings?,Gandalf,Literature
How many planets are in our solar system?,8,Science
What is the smallest U.S. state?,Rhode Island,Geography
Who painted The Last Supper?,Leonardo da Vinci,Art
What is the longest-running animated TV show?,The Simpsons,TV
What is the largest species of penguin?,Emperor Penguin,Science
Who was the first woman to fly solo across the Atlantic Ocean?,Amelia Earhart,History
What is the capital of France?,Paris,Geography
How many hearts does an octopus have?,3,Science
What is the tallest animal in the world?,Giraffe,Science
What is the most spoken language in the world?,Mandarin Chinese,Language
Who discovered the theory of evolution?,Charles Darwin,Science
What is the largest continent by land area?,Asia,Geography
What is the chemical symbol for potassium?,K,Science
What is the world's smallest country?,Vatican City,Geography
Who wrote Pride and Prejudice?,Jane Austen,Literature
How many states are there in the United States?,50,Geography
What is the capital of Australia?,Canberra,Geography
What is the longest-running TV show in the United States?,The Simpsons,TV
Who directed Titanic?,James Cameron,Movies
What is the main ingredient in sushi?,Rice,Food
What is the most populous country in the world?,China,Geography
What is the name of the fairy tale character who wore a red hood?,Little Red Riding Hood,Literature
Who is the Greek god of war?,Ares,Mythology
How many days are in a leap year?,366,Math
What is the capital of Canada?,Ottawa,Geography
What animal is known for its black and white stripes?,Zebra,Science
Who wrote The Hobbit?,J.R.R. Tolkien,Literature
What is the currency of Japan?,Yen,Geography
What is the chemical symbol for sodium?,Na,Science
What year did the first man land on the Moon?,1969,History
What is the largest island in the world?,Greenland,Geography
What is the fastest land animal?,Cheetah,Science
What is the capital of Italy?,Rome,Geography
How many bones are in the human body?,206,Science
What is the longest river in the world?,Nile,Geography
How many players are on a standard soccer team?,11,Sports
What is the capital of Germany?,Berlin,Geography
What animal is known for its ability to change color?,Chameleon,Science
Who wrote The Catcher in the Rye?,J.D. Salinger,Literature
What is the chemical formula for water?,H2O,Science
Who invented the light bulb?,Thomas Edison,History
What is the national bird of the United States?,Bald Eagle,Geography
How many moons does Jupiter have?,79,Science
What is the capital of Greece?,Athens,Geography
What is the currency of the United Kingdom?,Pound Sterling,Geography
Who painted the Mona Lisa?,Leonardo da Vinci,Art
What is the largest country by population?,China,Geography
How many stripes are on the American flag?,13,History
What is the longest-running Broadway musical?,The Phantom of the Opera,Theater
Who directed Inception?,Christopher Nolan,Movies
What is the currency of Mexico?,Peso,Geography
What is the term for a baby kangaroo?,Joey,Science
What is the smallest country in Africa by land area?,Seychelles,Geography
How many players are on a baseball field at one time?,18 (9 per team),Sports
What is the capital of South Korea?,Seoul,Geography
What is the capital of Egypt?,Cairo,Geography
What is the most famous landmark in Paris?,Eiffel Tower,Geography
What year did World War I start?,1914,History
What is the largest desert in the world?,Sahara,Geography
What is the chemical symbol for gold?,Au,Science
How many legs does a spider have?,8,Science
Who was the first woman to win a Nobel Prize?,Marie Curie,Science
What is the largest type of shark?,Whale Shark,Science
What is the capital of Brazil?,Brasília,Geography
What is the capital of Japan?,Tokyo,Geography
What element does the chemical symbol "Fe" represent?,Iron,Science
Who wrote Moby Dick?,Herman Melville,Literature
How many sides does a hexagon have?,6,Math
What is the capital of India?,New Delhi,Geography
What is the national animal of Australia?,Kangaroo,Geography
What year did the Titanic sink?,1912,History
How many continents are there?,7,Geography
What is the chemical symbol for helium?,He,Science
What is the currency of Australia?,Australian Dollar,Geography
What is the capital of Sweden?,Stockholm,Geography
What type of animal is the Komodo dragon?,Lizard,Science
Who was the first actor to play James Bond?,Sean Connery,Movies
What is the tallest waterfall in the world?,Angel Falls,Geography
What is the fastest bird in the world?,Peregrine Falcon,Science
Who is the Greek goddess of wisdom?,Athena,Mythology
How many hearts does a worm have?,5,Science
What is the capital of Argentina?,Buenos Aires,Geography
What is the term for a word that is the same forward and backward?,Palindrome,Language
What is the capital of Spain?,Madrid,Geography
What is the largest ocean on Earth?,Pacific Ocean,Geography
What animal is known for its long neck?,Giraffe,Science
How many players are on a football team on the field at one time?,11,Sports
What is the chemical symbol for potassium?,K,Science
What is the capital of Norway?,Oslo,Geography
What element does the chemical symbol "Hg" represent?,Mercury,Science
What is the term for a word that sounds the same but has a different meaning?,Homophone,Language
Who invented the telephone?,Alexander Graham Bell,History
What is the term for the distance around a circle?,Circumference,Math
What is the longest-running animated series in the United States?,The Simpsons,TV
How many colors are in a rainbow?,7,Science
What animal is known for its intelligence and use of tools?,Chimpanzee,Science
What is the largest city in the United States by population?,New York City,Geography
Who was the first U.S. president?,George Washington,History
What is the most common blood type in humans?,O,Science
How many players are on a volleyball team?,6,Sports
What is the deepest ocean in the world?,Pacific Ocean,Geography
What is the name of the largest volcano on Earth?,Mauna Loa,Geography
Who discovered penicillin?,Alexander Fleming,Science
What is the currency of Canada?,Canadian Dollar,Geography
What is the capital of Italy?,Rome,Geography
How many bones does a baby have at birth?,270,Science
What is the capital of the United Kingdom?,London,Geography
Who painted The Persistence of Memory?,Salvador Dalí,Art
What is the name of the largest island in the Caribbean?,Cuba,Geography
What is the highest mountain in the world?,Mount Everest,Geography
How many states are in the United States?,50,Geography
What is the chemical symbol for zinc?,Zn,Science
What is the most abundant element in the Earth's crust?,Oxygen,Science
How many teeth does an adult human have?,32,Science
What is the currency of China?,Yuan,Geography
What year was the first iPhone released?,2007,Technology
What is the largest country in South America?,Brazil,Geography
What type of tree produces acorns?,Oak Tree,Science
What is the smallest bird in the world?,Bee Hummingbird,Science
What is the capital of New Zealand?,Wellington,Geography
Who invented the first practical light bulb?,Thomas Edison,History
How many countries are in the European Union?,27,Geography
What is the term for a baby sheep?,Lamb,Science
What is the capital of South Africa?,Pretoria,Geography
How many seconds are in an hour?,3600,Math
What is the main ingredient in guacamole?,Avocado,Food
Who is the author of Harry Potter?,J.K. Rowling,Literature
What is the chemical formula for carbon dioxide?,CO2,Science
What is the capital of Japan?,Tokyo,Geography
What is the term for a word with opposite meanings?,Antonym,Language
Who created the first computer?,Charles Babbage,Technology
What is the capital of Thailand?,Bangkok,Geography
What is the smallest ocean on Earth?,Arctic Ocean,Geography
What is the name of the planet known as the "Red Planet"?,Mars,Science
How many countries are in Africa?,54,Geography
Who wrote 1984?,George Orwell,Literature
What is the hardest mineral on Earth?,Diamond,Science
How many meters are in a kilometer?,1000,Math
Who was the first president of the United States?,George Washington,History
How many years are in a century?,100,Math
What is the fastest land animal?,Cheetah,Science
What is the national flower of the United States?,Rose,Geography
What is the capital of Switzerland?,Bern,Geography
What is the most popular sport in the world?,Soccer,Sports
What is the currency of South Korea?,Won,Geography
How many bones does an adult human have?,206,Science
Who invented the airplane?,Wright Brothers,History
What is the term for a person who studies the stars?,Astronomer,Science
What is the name of the first manned spacecraft to land on the Moon?,Apollo 11,History
How many elements are in the periodic table?,118,Science
What is the name of the toy cowboy in Toy Story?,Woody,Movies
What is the longest-running sitcom in the United States?,The Simpsons,TV
What animal is known for its ability to play music?,Elephant,Science
What is the largest living species of tortoise?,Galápagos Tortoise,Science
What does "Wi-Fi" stand for?,Wireless Fidelity,Technology
What is the main ingredient in pesto?,Basil,Food
Who discovered America?,Christopher Columbus,History
What is the hardest material known to man?,Diamond,Science
What is the capital of Egypt?,Cairo,Geography
What is the highest-grossing movie of all time?,Avatar,Movies
How many legs does a crab have?,10,Science
What is the symbol for the element lead?,Pb,Science
What is the fastest marine animal?,Black Marlin,Science
What is the largest desert in the world?,Sahara,Geography
What year did the Berlin Wall fall?,1989,History
How many languages are spoken in the world?,Over 7000,Language
What is the world's longest wall?,Great Wall of China,Geography
How many teeth does a great white shark have?,300,Science
What type of animal is a Komodo Dragon?,Reptile,Science
What is the capital of Iceland?,Reykjavik,Geography
What is the most widely consumed beverage in the world?,Water,Food
What year was the first computer invented?,1822,Technology
What is the most popular fruit in the world?,Banana,Food
What is the most consumed meat in the world?,Pork,Food
What is the longest animal migration?,Gray Whale,Science
How many players are on a rugby team?,15,Sports
What does "HTML" stand for?,HyperText Markup Language,Technology
How many legs do insects have?,6,Science
What is the primary color of a school bus?,Yellow,Transportation
What year did the first manned mission to the Moon occur?,1969,History
What is the world’s largest hot desert?,Sahara,Geography
What is the tallest building in the world?,Burj Khalifa,Geography
Who was the first woman in space?,Valentina Tereshkova,History
What is the capital of Norway?,Oslo,Geography
How many pairs of chromosomes do humans have?,23,Science
What is the smallest country in Europe by land area?,Vatican City,Geography
Who was the first person to run a mile in under 4 minutes?,Roger Bannister,Sports
What animal is known as the "King of the Jungle"?,Lion,Science
What is the capital of Portugal?,Lisbon,Geography
What is the world's largest ocean?,Pacific Ocean,Geography
How many days are there in a year?,365,Math
What is the most expensive spice in the world?,Saffron,Food
Who invented the first telephone?,Alexander Graham Bell,History
What is the capital of Finland?,Helsinki,Geography
What does "JPEG" stand for?,Joint Photographic Experts Group,Technology
What is the largest planet in our solar system?,Jupiter,Science
What is the smallest continent?,Australia,Geography
How many squares are there on a chessboard?,64,Games
What animal is known for its ability to mimic human speech?,Parrot,Science
What year did World War II begin?,1939,History
What is the term for a young kangaroo?,Joey,Science
What is the chemical symbol for calcium?,Ca,Science
Who directed The Godfather?,Francis Ford Coppola,Movies
What is the name of the largest planet in the solar system?,Jupiter,Science
